HEADER
"PSFversion" "1.00"
"Time Stamp" "Jul  4 14:09:01 2026"
TYPE
"variable" STRUCT(
"value" FLOAT DOUBLE
) PROP( "key" "element" )
VALUE
"temp" "variable" ( 27 ) PROP( )
END
