HEADER
"PSFversion" "1.00"
"I0n" "inverter"
"V0n" "analogLib_vpulse_spectre"
"V1n" "analogLib_vdc_spectre"
